Program Version,EnergyPlus, Version 25.1.0-68a4a7c774, YMD=2025.06.26 10:09
1,5,Environment Title[],Latitude[deg],Longitude[deg],Time Zone[],Elevation[m]
2,8,Day of Simulation[],Month[],Day of Month[],DST Indicator[1=yes 0=no],Hour[],StartMinute[],EndMinute[],DayType
3,5,Cumulative Day of Simulation[],Month[],Day of Month[],DST Indicator[1=yes 0=no],DayType  ! When Daily Report Variables Requested
4,2,Cumulative Days of Simulation[],Month[]  ! When Monthly Report Variables Requested
5,1,Cumulative Days of Simulation[] ! When Run Period Report Variables Requested
6,1,Calendar Year of Simulation[] ! When Annual Report Variables Requested
7,1,MAINZONE,Zone Mean Air Temperature [C] !Hourly
8,1,MAINZONE,Zone Air Temperature [C] !Hourly
End of Data Dictionary
1,RUNPERIOD1,  40.65, -75.43,  -5.00, 117.00
2,1, 6,26, 0, 1, 0.00,60.00,Monday
7,21.642856228347767
8,21.642856228347767
2,1, 6,26, 0, 2, 0.00,60.00,Monday
7,21.01685095334858
8,21.01685095334858
2,1, 6,26, 0, 3, 0.00,60.00,Monday
7,20.449301514099506
8,20.449301514099506
2,1, 6,26, 0, 4, 0.00,60.00,Monday
7,19.934278122124034
8,19.934278122124034
2,1, 6,26, 0, 5, 0.00,60.00,Monday
7,19.45381987757643
8,19.45381987757643
2,1, 6,26, 0, 6, 0.00,60.00,Monday
7,19.11851372578415
8,19.11851372578415
2,1, 6,26, 0, 7, 0.00,60.00,Monday
7,18.97685442847738
8,18.97685442847738
2,1, 6,26, 0, 8, 0.00,60.00,Monday
7,18.96201137172903
8,18.96201137172903
2,1, 6,26, 0, 9, 0.00,60.00,Monday
7,19.18055406022592
8,19.18055406022592
2,1, 6,26, 0,10, 0.00,60.00,Monday
7,19.724006133722813
8,19.724006133722813
2,1, 6,26, 0,11, 0.00,60.00,Monday
7,20.459775521720925
8,20.459775521720925
2,1, 6,26, 0,12, 0.00,60.00,Monday
7,21.25414448316773
8,21.25414448316773
2,1, 6,26, 0,13, 0.00,60.00,Monday
7,22.0623687532168
8,22.0623687532168
2,1, 6,26, 0,14, 0.00,60.00,Monday
7,22.800102119349305
8,22.800102119349305
2,1, 6,26, 0,15, 0.00,60.00,Monday
7,23.47615304453065
8,23.47615304453065
2,1, 6,26, 0,16, 0.00,60.00,Monday
7,24.033326825634575
8,24.033326825634575
2,1, 6,26, 0,17, 0.00,60.00,Monday
7,24.385856645717972
8,24.385856645717972
2,1, 6,26, 0,18, 0.00,60.00,Monday
7,24.54421319722323
8,24.54421319722323
2,1, 6,26, 0,19, 0.00,60.00,Monday
7,24.540584598528326
8,24.540584598528326
2,1, 6,26, 0,20, 0.00,60.00,Monday
7,24.281339445886083
8,24.281339445886083
2,1, 6,26, 0,21, 0.00,60.00,Monday
7,23.892476853747883
8,23.892476853747883
2,1, 6,26, 0,22, 0.00,60.00,Monday
7,23.43747228514978
8,23.43747228514978
2,1, 6,26, 0,23, 0.00,60.00,Monday
7,22.890510750115833
8,22.890510750115833
2,1, 6,26, 0,24, 0.00,60.00,Monday
7,22.291744025889784
8,22.291744025889784
End of Data
 Number of Records Written=          48
