Program Version,EnergyPlus, Version 25.1.0-68a4a7c774, YMD=2025.06.26 10:09
1,5,Environment Title[],Latitude[deg],Longitude[deg],Time Zone[],Elevation[m]
2,8,Day of Simulation[],Month[],Day of Month[],DST Indicator[1=yes 0=no],Hour[],StartMinute[],EndMinute[],DayType
3,5,Cumulative Day of Simulation[],Month[],Day of Month[],DST Indicator[1=yes 0=no],DayType  ! When Daily Report Variables Requested
4,2,Cumulative Days of Simulation[],Month[]  ! When Monthly Report Variables Requested
5,1,Cumulative Days of Simulation[] ! When Run Period Report Variables Requested
6,1,Calendar Year of Simulation[] ! When Annual Report Variables Requested
7,1,MAINZONE,Zone Mean Air Temperature [C] !Hourly
8,1,MAINZONE,Zone Air Temperature [C] !Hourly
End of Data Dictionary
1,RUNPERIOD1,  40.65, -75.43,  -5.00, 117.00
2,1, 6,26, 0, 1, 0.00,60.00,Monday
7,21.64407192414973
8,21.64407192414973
2,1, 6,26, 0, 2, 0.00,60.00,Monday
7,21.018141139138383
8,21.018141139138383
2,1, 6,26, 0, 3, 0.00,60.00,Monday
7,20.450629476658115
8,20.450629476658115
2,1, 6,26, 0, 4, 0.00,60.00,Monday
7,19.935612425781585
8,19.935612425781585
2,1, 6,26, 0, 5, 0.00,60.00,Monday
7,19.455154993171032
8,19.455154993171032
2,1, 6,26, 0, 6, 0.00,60.00,Monday
7,19.11969305674566
8,19.11969305674566
2,1, 6,26, 0, 7, 0.00,60.00,Monday
7,18.977817087182526
8,18.977817087182526
2,1, 6,26, 0, 8, 0.00,60.00,Monday
7,18.962814899417026
8,18.962814899417026
2,1, 6,26, 0, 9, 0.00,60.00,Monday
7,19.181207765528168
8,19.181207765528168
2,1, 6,26, 0,10, 0.00,60.00,Monday
7,19.72451119047423
8,19.72451119047423
2,1, 6,26, 0,11, 0.00,60.00,Monday
7,20.460150519539344
8,20.460150519539344
2,1, 6,26, 0,12, 0.00,60.00,Monday
7,21.254449325152198
8,21.254449325152198
2,1, 6,26, 0,13, 0.00,60.00,Monday
7,22.062623622027854
8,22.062623622027854
2,1, 6,26, 0,14, 0.00,60.00,Monday
7,22.80032970408149
8,22.80032970408149
2,1, 6,26, 0,15, 0.00,60.00,Monday
7,23.47636475700802
8,23.47636475700802
2,1, 6,26, 0,16, 0.00,60.00,Monday
7,24.033545910059686
8,24.033545910059686
2,1, 6,26, 0,17, 0.00,60.00,Monday
7,24.386123007541407
8,24.386123007541407
2,1, 6,26, 0,18, 0.00,60.00,Monday
7,24.54455917377397
8,24.54455917377397
2,1, 6,26, 0,19, 0.00,60.00,Monday
7,24.541044495167956
8,24.541044495167956
2,1, 6,26, 0,20, 0.00,60.00,Monday
7,24.281948325419854
8,24.281948325419854
2,1, 6,26, 0,21, 0.00,60.00,Monday
7,23.893241505422306
8,23.893241505422306
2,1, 6,26, 0,22, 0.00,60.00,Monday
7,23.438368681602036
8,23.438368681602036
2,1, 6,26, 0,23, 0.00,60.00,Monday
7,22.8915251818659
8,22.8915251818659
2,1, 6,26, 0,24, 0.00,60.00,Monday
7,22.29286127971833
8,22.29286127971833
End of Data
 Number of Records Written=          48
